 argument  1 = H3N1.nw
                                         
                                         
 
 
              Northwest Computational Chemistry Package (NWChem) 6.3
              ------------------------------------------------------
 
 
                    Environmental Molecular Sciences Laboratory
                       Pacific Northwest National Laboratory
                                Richland, WA 99352
 
                              Copyright (c) 1994-2012
                       Pacific Northwest National Laboratory
                            Battelle Memorial Institute
 
             NWChem is an open-source computational chemistry package
                        distributed under the terms of the
                      Educational Community License (ECL) 2.0
             A copy of the license is included with this distribution
                              in the LICENSE.TXT file
 
                                  ACKNOWLEDGMENT
                                  --------------

            This software and its documentation were developed at the
            EMSL at Pacific Northwest National Laboratory, a multiprogram
            national laboratory, operated for the U.S. Department of Energy
            by Battelle under Contract Number DE-AC05-76RL01830. Support
            for this work was provided by the Department of Energy Office
            of Biological and Environmental Research, Office of Basic
            Energy Sciences, and the Office of Advanced Scientific Computing.


           Job information
           ---------------

    hostname        = trestles-login2.sdsc.edu
    program         = nwchem
    date            = Mon Apr 20 08:38:13 2015

    compiled        = Wed_Dec_04_20:19:44_2013
    source          = /tmp/nwchem-6.3
    nwchem branch   = 6.3
    nwchem revision = 24277
    ga revision     = 10379
    input           = H3N1.nw
    prefix          = H3N1.
    data base       = ./H3N1.db
    status          = startup
    nproc           =        1
    time left       =     -1s



           Memory information
           ------------------

    heap     =   32768001 doubles =    250.0 Mbytes
    stack    =   32768001 doubles =    250.0 Mbytes
    global   =   65536000 doubles =    500.0 Mbytes (distinct from heap & stack)
    total    =  131072002 doubles =   1000.0 Mbytes
    verify   = yes
    hardfail = no 


           Directory information
           ---------------------
 
  0 permanent = .
  0 scratch   = .
 
 
 
 
                                NWChem Input Module
                                -------------------
 
 

 Scaling coordinates for geometry "geometry" by  1.889725989
 (inverse scale =  0.529177249)

 C3V symmetry detected
 
 
                             Geometry "geometry" -> ""
                             -------------------------
 
 Output coordinates in angstroms (scale by  1.889725989 to convert to a.u.)
 
  No.       Tag          Charge          X              Y              Z
 ---- ---------------- ---------- -------------- -------------- --------------
    1 N                    7.0000     0.00000000     0.00000000     0.10898739
    2 H                    1.0000     0.72683573     0.72683573    -0.25430392
    3 H                    1.0000     0.26604034    -0.99287607    -0.25430392
    4 H                    1.0000    -0.99287607     0.26604034    -0.25430392
 
      Atomic Mass 
      ----------- 
 
      N                 14.003070
      H                  1.007825
 

 Effective nuclear repulsion energy (a.u.)      11.0848640562

            Nuclear Dipole moment (a.u.) 
            ----------------------------
        X                 Y               Z
 ---------------- ---------------- ----------------
    -0.0000000000     0.0000000000    -0.0000000000
 
      Symmetry information
      --------------------
 
 Group name             C3v       
 Group number             17
 Group order               6
 No. of unique centers     2
 
      Symmetry unique atoms
 
     1    2
 
 
            XYZ format geometry
            -------------------
     4
 geometry
 N                     0.00000000     0.00000000     0.10898739
 H                     0.72683573     0.72683573    -0.25430392
 H                     0.26604034    -0.99287607    -0.25430392
 H                    -0.99287607     0.26604034    -0.25430392
 
 ==============================================================================
                                internuclear distances
 ------------------------------------------------------------------------------
       center one      |      center two      | atomic units |  angstroms
 ------------------------------------------------------------------------------
    2 H                |   1 N                |     2.06020  |     1.09021
    3 H                |   1 N                |     2.06020  |     1.09021
    4 H                |   1 N                |     2.06020  |     1.09021
 ------------------------------------------------------------------------------
                         number of included internuclear distances:          3
 ==============================================================================



 ==============================================================================
                                 internuclear angles
 ------------------------------------------------------------------------------
        center 1       |       center 2       |       center 3       |  degrees
 ------------------------------------------------------------------------------
    2 H                |   1 N                |   3 H                |   109.48
    2 H                |   1 N                |   4 H                |   109.48
    3 H                |   1 N                |   4 H                |   109.48
 ------------------------------------------------------------------------------
                            number of included internuclear angles:          3
 ==============================================================================



                                 H3N1 dft optimize
                                 -----------------
  library name resolved from: environment
  library file name is: </opt/nwchem/data/libraries/>
  
                      Basis "ao basis" -> "" (cartesian)
                      -----
  H (Hydrogen)
  ------------
            Exponent  Coefficients 
       -------------- ---------------------------------------------------------
  1 S  1.87311370E+01  0.033495
  1 S  2.82539370E+00  0.234727
  1 S  6.40121700E-01  0.813757
 
  2 S  1.61277800E-01  1.000000
 
  N (Nitrogen)
  ------------
            Exponent  Coefficients 
       -------------- ---------------------------------------------------------
  1 S  4.17351100E+03  0.001835
  1 S  6.27457900E+02  0.013995
  1 S  1.42902100E+02  0.068587
  1 S  4.02343300E+01  0.232241
  1 S  1.28202100E+01  0.469070
  1 S  4.39043700E+00  0.360455
 
  2 S  1.16263580E+01 -0.114961
  2 S  2.71628000E+00 -0.169118
  2 S  7.72218000E-01  1.145852
 
  3 P  1.16263580E+01  0.067580
  3 P  2.71628000E+00  0.323907
  3 P  7.72218000E-01  0.740895
 
  4 S  2.12031300E-01  1.000000
 
  5 P  2.12031300E-01  1.000000
 


 Summary of "ao basis" -> "" (cartesian)
 ------------------------------------------------------------------------------
       Tag                 Description            Shells   Functions and Types
 ---------------- ------------------------------  ------  ---------------------
 H                           6-31G                   2        2   2s
 N                           6-31G                   5        9   3s2p


 
 
                           NWChem Geometry Optimization
                           ----------------------------
 
 
 
 
                                 H3N1 dft optimize
 
 
 maximum gradient threshold         (gmax) =   0.000450
 rms gradient threshold             (grms) =   0.000300
 maximum cartesian step threshold   (xmax) =   0.001800
 rms cartesian step threshold       (xrms) =   0.001200
 fixed trust radius                (trust) =   0.300000
 maximum step size to saddle      (sadstp) =   0.100000
 energy precision                  (eprec) =   5.0D-06
 maximum number of steps          (nptopt) =   20
 initial hessian option           (inhess) =    0
 line search option               (linopt) =    1
 hessian update option            (modupd) =    1
 saddle point option              (modsad) =    0
 initial eigen-mode to follow     (moddir) =    0
 initial variable to follow       (vardir) =    0
 follow first negative mode     (firstneg) =    T
 apply conjugacy                    (opcg) =    F
 source of zmatrix                         =           


          -------------------
          Energy Minimization
          -------------------

 
 Using diagonal initial Hessian 

          --------
          Step   0
          --------
 
 
                         Geometry "geometry" -> "geometry"
                         ---------------------------------
 
 Output coordinates in angstroms (scale by  1.889725989 to convert to a.u.)
 
  No.       Tag          Charge          X              Y              Z
 ---- ---------------- ---------- -------------- -------------- --------------
    1 N                    7.0000     0.00000000     0.00000000     0.10898739
    2 H                    1.0000     0.72683573     0.72683573    -0.25430392
    3 H                    1.0000     0.26604034    -0.99287607    -0.25430392
    4 H                    1.0000    -0.99287607     0.26604034    -0.25430392
 
      Atomic Mass 
      ----------- 
 
      N                 14.003070
      H                  1.007825
 

 Effective nuclear repulsion energy (a.u.)      11.0848640562

            Nuclear Dipole moment (a.u.) 
            ----------------------------
        X                 Y               Z
 ---------------- ---------------- ----------------
    -0.0000000000     0.0000000000    -0.0000000000
 
      Symmetry information
      --------------------
 
 Group name             C3v       
 Group number             17
 Group order               6
 No. of unique centers     2
 
      Symmetry unique atoms
 
     1    2
 
 
                                 NWChem DFT Module
                                 -----------------
 
 
                                 H3N1 dft optimize
 
 
  Caching 1-el integrals 
  Rotation of axis 
 
            General Information
            -------------------
          SCF calculation type: DFT
          Wavefunction type:  closed shell.
          No. of atoms     :     4
          No. of electrons :    10
           Alpha electrons :     5
            Beta electrons :     5
          Charge           :     0
          Spin multiplicity:     1
          Use of symmetry is: on ; symmetry adaption is: on 
          Maximum number of iterations:  30
          AO basis - number of functions:    15
                     number of shells:    11
          Convergence on energy requested: 1.00D-06
          Convergence on density requested: 1.00D-05
          Convergence on gradient requested: 5.00D-04
 
              XC Information
              --------------
                         B3LYP Method XC Potential
                     Hartree-Fock (Exact) Exchange  0.200          
                        Slater Exchange Functional  0.800 local    
                    Becke 1988 Exchange Functional  0.720 non-local
              Lee-Yang-Parr Correlation Functional  0.810          
                  VWN I RPA Correlation Functional  0.190 local    
 
             Grid Information
             ----------------
          Grid used for XC integration:  medium    
          Radial quadrature: Mura-Knowles        
          Angular quadrature: Lebedev. 
          Tag              B.-S. Rad. Rad. Pts. Rad. Cut. Ang. Pts.
          ---              ---------- --------- --------- ---------
          N                   0.65       49           5.0       434
          H                   0.35       45           7.0       434
          Grid pruning is: on 
          Number of quadrature shells:    94
          Spatial weights used:  Erf1
 
          Convergence Information
          -----------------------
          Convergence aids based upon iterative change in 
          total energy or number of iterations. 
          Levelshifting, if invoked, occurs when the 
          HOMO/LUMO gap drops below (HL_TOL): 1.00D-02
          DIIS, if invoked, will attempt to extrapolate 
          using up to (NFOCK): 10 stored Fock matrices.

                    Damping( 0%)  Levelshifting(0.5)       DIIS
                  --------------- ------------------- ---------------
          dE  on:    start            ASAP                start   
          dE off:    2 iters         30 iters            30 iters 

 
      Screening Tolerance Information
      -------------------------------
          Density screening/tol_rho: 1.00D-10
          AO Gaussian exp screening on grid/accAOfunc:  14
          CD Gaussian exp screening on grid/accCDfunc:  20
          XC Gaussian exp screening on grid/accXCfunc:  20
          Schwarz screening/accCoul: 1.00D-08

 
      Superposition of Atomic Density Guess
      -------------------------------------
 
 Sum of atomic energies:         -55.78843586
 
      Non-variational initial energy
      ------------------------------

 Total energy =     -56.000453
 1-e energy   =     -96.777215
 2-e energy   =      29.691899
 HOMO         =      -0.338974
 LUMO         =       0.100555
 
 
      Symmetry analysis of molecular orbitals - initial
      -------------------------------------------------
 
  Numbering of irreducible representations: 
 
     1 a1          2 a2          3 e       
 
  Orbital symmetries:
 
     1 a1          2 a1          3 e           4 e           5 a1      
     6 a1          7 e           8 e           9 a1         10 e       
    11 e          12 a1         13 e          14 e          15 a1      
 
   Time after variat. SCF:      0.3
   Time prior to 1st pass:      0.3

 #quartets = 7.350D+02 #integrals = 2.363D+03 #direct =  0.0% #cached =100.0%


 Integral file          = ./H3N1.aoints.0
 Record size in doubles =    65536    No. of integs per rec  =    43688
 Max. records in memory =        2    Max. records in file   =  1696393
 No. of bits per label  =        8    No. of bits per value  =       64


 Grid_pts file          = ./H3N1.gridpts.0
 Record size in doubles =  12289        No. of grid_pts per rec  =   3070
 Max. records in memory =     16        Max. recs in file   =   9046699


           Memory utilization after 1st SCF pass: 
           Heap Space remaining (MW):       32.44            32438919
          Stack Space remaining (MW):       32.77            32767788

   convergence    iter        energy       DeltaE   RMS-Dens  Diis-err    time
 ---------------- ----- ----------------- --------- --------- ---------  ------
 d= 0,ls=0.0,diis     1    -56.4970690926 -6.76D+01  3.05D-02  1.72D-01     0.4
 d= 0,ls=0.0,diis     2    -56.5024563151 -5.39D-03  1.67D-02  1.52D-01     0.4
 d= 0,ls=0.0,diis     3    -56.5181336188 -1.57D-02  3.88D-03  1.28D-02     0.5
 d= 0,ls=0.0,diis     4    -56.5195465960 -1.41D-03  1.38D-04  1.51D-06     0.5
 d= 0,ls=0.0,diis     5    -56.5195469442 -3.48D-07  2.63D-05  9.04D-09     0.6
 d= 0,ls=0.0,diis     6    -56.5195469494 -5.18D-09  1.80D-06  3.74D-10     0.6


         Total DFT energy =      -56.519546949423
      One electron energy =      -98.080593736220
           Coulomb energy =       38.426650264619
    Exchange-Corr. energy =       -7.950467534046
 Nuclear repulsion energy =       11.084864056225

 Numeric. integr. density =        9.999999992309

     Total iterative time =      0.3s


 
                  Occupations of the irreducible representations
                  ----------------------------------------------
 
                     irrep           alpha         beta
                     --------     --------     --------
                     a1                3.0          3.0
                     a2                0.0          0.0
                     e                 2.0          2.0
 
 
                       DFT Final Molecular Orbital Analysis
                       ------------------------------------
 
 Vector    1  Occ=2.000000D+00  E=-1.431806D+01  Symmetry=a1
              MO Center= -4.9D-19, -6.8D-18,  1.1D-01, r^2= 2.0D-02
   Bfn.  Coefficient  Atom+Function         Bfn.  Coefficient  Atom+Function  
  ----- ------------  ---------------      ----- ------------  ---------------
     1      0.995228  1 N  s          
 
 Vector    2  Occ=2.000000D+00  E=-8.208191D-01  Symmetry=a1
              MO Center=  1.8D-17,  4.1D-17, -9.1D-02, r^2= 7.3D-01
   Bfn.  Coefficient  Atom+Function         Bfn.  Coefficient  Atom+Function  
  ----- ------------  ---------------      ----- ------------  ---------------
     6      0.456728  1 N  s                  2      0.418905  1 N  s          
     1     -0.200017  1 N  s          
 
 Vector    3  Occ=2.000000D+00  E=-4.401000D-01  Symmetry=e
              MO Center=  2.2D-01, -4.1D-02, -4.9D-02, r^2= 1.1D+00
   Bfn.  Coefficient  Atom+Function         Bfn.  Coefficient  Atom+Function  
  ----- ------------  ---------------      ----- ------------  ---------------
     4      0.448017  1 N  py                10      0.257330  2 H  s          
    12     -0.246107  3 H  s                  8      0.225542  1 N  py         
    11      0.190513  2 H  s                 13     -0.182205  3 H  s          
 
 Vector    4  Occ=2.000000D+00  E=-4.401000D-01  Symmetry=e
              MO Center= -2.2D-01,  4.1D-02, -4.9D-02, r^2= 1.1D+00
   Bfn.  Coefficient  Atom+Function         Bfn.  Coefficient  Atom+Function  
  ----- ------------  ---------------      ----- ------------  ---------------
     3      0.448017  1 N  px                14     -0.290660  4 H  s          
     7      0.225542  1 N  px                15     -0.215189  4 H  s          
    12      0.155049  3 H  s          
 
 Vector    5  Occ=2.000000D+00  E=-2.312948D-01  Symmetry=a1
              MO Center= -8.7D-19, -1.5D-17,  2.9D-01, r^2= 8.2D-01
   Bfn.  Coefficient  Atom+Function         Bfn.  Coefficient  Atom+Function  
  ----- ------------  ---------------      ----- ------------  ---------------
     5      0.558302  1 N  pz                 9      0.487096  1 N  pz         
     6      0.273714  1 N  s                  2      0.159109  1 N  s          
 
 Vector    6  Occ=0.000000D+00  E= 5.328582D-02  Symmetry=a1
              MO Center= -5.6D-17,  5.6D-17, -3.1D-01, r^2= 3.0D+00
   Bfn.  Coefficient  Atom+Function         Bfn.  Coefficient  Atom+Function  
  ----- ------------  ---------------      ----- ------------  ---------------
     6      1.497105  1 N  s                 11     -0.821815  2 H  s          
    13     -0.821815  3 H  s                 15     -0.821815  4 H  s          
     9     -0.384903  1 N  pz                 5     -0.207389  1 N  pz         
     2      0.193244  1 N  s          
 
 Vector    7  Occ=0.000000D+00  E= 1.440389D-01  Symmetry=e
              MO Center= -4.3D-01, -3.1D-01, -2.6D-01, r^2= 2.6D+00
   Bfn.  Coefficient  Atom+Function         Bfn.  Coefficient  Atom+Function  
  ----- ------------  ---------------      ----- ------------  ---------------
    15     -1.303247  4 H  s                 13      1.188642  3 H  s          
     7     -0.725852  1 N  px                 8      0.618743  1 N  py         
     3     -0.335926  1 N  px                 4      0.286355  1 N  py         
 
 Vector    8  Occ=0.000000D+00  E= 1.440389D-01  Symmetry=e
              MO Center=  4.3D-01,  3.1D-01, -2.6D-01, r^2= 2.6D+00
   Bfn.  Coefficient  Atom+Function         Bfn.  Coefficient  Atom+Function  
  ----- ------------  ---------------      ----- ------------  ---------------
    11      1.438692  2 H  s                 13     -0.818597  3 H  s          
     8     -0.725852  1 N  py                 7     -0.618743  1 N  px         
    15     -0.620095  4 H  s                  4     -0.335926  1 N  py         
     3     -0.286355  1 N  px         
 
 Vector    9  Occ=0.000000D+00  E= 7.242429D-01  Symmetry=a1
              MO Center= -2.1D-17, -9.5D-18,  3.1D-01, r^2= 1.4D+00
   Bfn.  Coefficient  Atom+Function         Bfn.  Coefficient  Atom+Function  
  ----- ------------  ---------------      ----- ------------  ---------------
     9      1.112101  1 N  pz                 5     -1.006683  1 N  pz         
     6     -0.340508  1 N  s                 11      0.236802  2 H  s          
    13      0.236802  3 H  s                 15      0.236802  4 H  s          
 
 Vector   10  Occ=0.000000D+00  E= 7.498283D-01  Symmetry=e
              MO Center= -3.0D-02, -2.0D-03,  1.3D-01, r^2= 1.9D+00
   Bfn.  Coefficient  Atom+Function         Bfn.  Coefficient  Atom+Function  
  ----- ------------  ---------------      ----- ------------  ---------------
     8      1.111568  1 N  py                10     -0.828037  2 H  s          
    12      0.683323  3 H  s                  7      0.504617  1 N  px         
     4     -0.392978  1 N  py                 3     -0.178400  1 N  px         
    11      0.151094  2 H  s          
 
 Vector   11  Occ=0.000000D+00  E= 7.498283D-01  Symmetry=e
              MO Center=  3.0D-02,  2.0D-03,  1.3D-01, r^2= 1.9D+00
   Bfn.  Coefficient  Atom+Function         Bfn.  Coefficient  Atom+Function  
  ----- ------------  ---------------      ----- ------------  ---------------
     7      1.111568  1 N  px                14      0.872584  4 H  s          
    12     -0.561618  3 H  s                  8     -0.504617  1 N  py         
     3     -0.392978  1 N  px                10     -0.310966  2 H  s          
     4      0.178400  1 N  py                15     -0.159223  4 H  s          
 
 Vector   12  Occ=0.000000D+00  E= 8.316060D-01  Symmetry=a1
              MO Center=  4.0D-15, -1.1D-14, -3.7D-01, r^2= 1.8D+00
   Bfn.  Coefficient  Atom+Function         Bfn.  Coefficient  Atom+Function  
  ----- ------------  ---------------      ----- ------------  ---------------
    10      0.742912  2 H  s                 12      0.742912  3 H  s          
    14      0.742912  4 H  s                  6      0.597229  1 N  s          
    11     -0.540369  2 H  s                 13     -0.540369  3 H  s          
    15     -0.540369  4 H  s                  2     -0.523287  1 N  s          
     9      0.218880  1 N  pz         
 
 Vector   13  Occ=0.000000D+00  E= 8.758011D-01  Symmetry=e
              MO Center= -1.5D-02,  3.3D-01, -1.3D-01, r^2= 1.9D+00
   Bfn.  Coefficient  Atom+Function         Bfn.  Coefficient  Atom+Function  
  ----- ------------  ---------------      ----- ------------  ---------------
    11     -1.284205  2 H  s                  7      1.219775  1 N  px         
    15      1.131337  4 H  s                  3     -0.881308  1 N  px         
    10      0.578389  2 H  s                 14     -0.509539  4 H  s          
     8      0.474477  1 N  py                 4     -0.342817  1 N  py         
    13      0.152868  3 H  s          
 
 Vector   14  Occ=0.000000D+00  E= 8.758011D-01  Symmetry=e
              MO Center=  1.5D-02, -3.3D-01, -1.3D-01, r^2= 1.9D+00
   Bfn.  Coefficient  Atom+Function         Bfn.  Coefficient  Atom+Function  
  ----- ------------  ---------------      ----- ------------  ---------------
    13      1.394614  3 H  s                  8      1.219775  1 N  py         
     4     -0.881308  1 N  py                15     -0.829694  4 H  s          
    12     -0.628116  3 H  s                 11     -0.564919  2 H  s          
     7     -0.474477  1 N  px                14      0.373683  4 H  s          
     3      0.342817  1 N  px                10      0.254432  2 H  s          
 
 Vector   15  Occ=0.000000D+00  E= 1.229642D+00  Symmetry=a1
              MO Center=  6.1D-16,  1.1D-15, -1.3D-01, r^2= 1.6D+00
   Bfn.  Coefficient  Atom+Function         Bfn.  Coefficient  Atom+Function  
  ----- ------------  ---------------      ----- ------------  ---------------
     6      3.271594  1 N  s                  2     -1.831720  1 N  s          
    11     -0.616725  2 H  s                 13     -0.616725  3 H  s          
    15     -0.616725  4 H  s                  9     -0.590922  1 N  pz         
    10     -0.345479  2 H  s                 12     -0.345479  3 H  s          
    14     -0.345479  4 H  s          
 

 center of mass
 --------------
 x =  -0.00000000 y =   0.00000000 z =   0.08404789

 moments of inertia (a.u.)
 ------------------
           6.875916168729           0.000000000000           0.000000000000
           0.000000000000           6.875916168729           0.000000000000
           0.000000000000           0.000000000000          11.407922994090
 
     Multipole analysis of the density
     ---------------------------------
 
     L   x y z        total         alpha         beta         nuclear
     -   - - -        -----         -----         ----         -------
     0   0 0 0     -0.000000     -5.000000     -5.000000     10.000000
 
     1   1 0 0     -0.000000     -0.000000     -0.000000     -0.000000
     1   0 1 0     -0.000000     -0.000000     -0.000000      0.000000
     1   0 0 1     -0.800631     -0.400316     -0.400316     -0.000000
 
     2   2 0 0     -4.473100     -5.066387     -5.066387      5.659675
     2   1 1 0     -0.000000      0.000000      0.000000     -0.000000
     2   1 0 1     -0.000000     -0.000000     -0.000000      0.000000
     2   0 2 0     -4.473100     -5.066387     -5.066387      5.659675
     2   0 1 1     -0.000000     -0.000000     -0.000000     -0.000000
     2   0 0 2     -6.872257     -3.931005     -3.931005      0.989753
 

 Parallel integral file used       1 records with       0 large values

 
 
                            NWChem DFT Gradient Module
                            --------------------------
 
 
                                 H3N1 dft optimize
 
 

  charge          =   0.00
  wavefunction    = closed shell

  Rotation of axis 
  Using symmetry


                         DFT ENERGY GRADIENTS

    atom               coordinates                        gradient
                 x          y          z           x          y          z
   1 N       0.000000   0.000000   0.205956    0.000000   0.000000   0.043874
   2 H       1.373520   1.373520  -0.480565    0.032888   0.032888  -0.014625
   3 H       0.502743  -1.876264  -0.480565    0.012038  -0.044926  -0.014625
   4 H      -1.876264   0.502743  -0.480565   -0.044926   0.012038  -0.014625
 
                 ----------------------------------------
                 |  Time  |  1-e(secs)   |  2-e(secs)   |
                 ----------------------------------------
                 |  CPU   |       0.00   |       0.03   |
                 ----------------------------------------
                 |  WALL  |       0.00   |       0.03   |
                 ----------------------------------------

@ Step       Energy      Delta E   Gmax     Grms     Xrms     Xmax   Walltime
@ ---- ---------------- -------- -------- -------- -------- -------- --------
@    0     -56.51954695  0.0D+00  0.04493  0.02747  0.00000  0.00000      1.1
                                                                    

 
                                 NWChem DFT Module
                                 -----------------
 
 
                                 H3N1 dft optimize
 
 
  Caching 1-el integrals 
  Rotation of axis 
 
            General Information
            -------------------
          SCF calculation type: DFT
          Wavefunction type:  closed shell.
          No. of atoms     :     4
          No. of electrons :    10
           Alpha electrons :     5
            Beta electrons :     5
          Charge           :     0
          Spin multiplicity:     1
          Use of symmetry is: on ; symmetry adaption is: on 
          Maximum number of iterations:  30
          AO basis - number of functions:    15
                     number of shells:    11
          Convergence on energy requested: 1.00D-06
          Convergence on density requested: 1.00D-05
          Convergence on gradient requested: 5.00D-04
 
              XC Information
              --------------
                         B3LYP Method XC Potential
                     Hartree-Fock (Exact) Exchange  0.200          
                        Slater Exchange Functional  0.800 local    
                    Becke 1988 Exchange Functional  0.720 non-local
              Lee-Yang-Parr Correlation Functional  0.810          
                  VWN I RPA Correlation Functional  0.190 local    
 
             Grid Information
             ----------------
          Grid used for XC integration:  medium    
          Radial quadrature: Mura-Knowles        
          Angular quadrature: Lebedev. 
          Tag              B.-S. Rad. Rad. Pts. Rad. Cut. Ang. Pts.
          ---              ---------- --------- --------- ---------
          N                   0.65       49           5.0       434
          H                   0.35       45           6.0       434
          Grid pruning is: on 
          Number of quadrature shells:    94
          Spatial weights used:  Erf1
 
          Convergence Information
          -----------------------
          Convergence aids based upon iterative change in 
          total energy or number of iterations. 
          Levelshifting, if invoked, occurs when the 
          HOMO/LUMO gap drops below (HL_TOL): 1.00D-02
          DIIS, if invoked, will attempt to extrapolate 
          using up to (NFOCK): 10 stored Fock matrices.

                    Damping( 0%)  Levelshifting(0.5)       DIIS
                  --------------- ------------------- ---------------
          dE  on:    start            ASAP                start   
          dE off:    2 iters         30 iters            30 iters 

 
      Screening Tolerance Information
      -------------------------------
          Density screening/tol_rho: 1.00D-10
          AO Gaussian exp screening on grid/accAOfunc:  14
          CD Gaussian exp screening on grid/accCDfunc:  20
          XC Gaussian exp screening on grid/accXCfunc:  20
          Schwarz screening/accCoul: 1.00D-08


 Loading old vectors from job with title :

H3N1 dft optimize

 
      Symmetry analysis of molecular orbitals - initial
      -------------------------------------------------
 
  Numbering of irreducible representations: 
 
     1 a1          2 a2          3 e       
 
  Orbital symmetries:
 
     1 a1          2 a1          3 e           4 e           5 a1      
     6 a1          7 e           8 e           9 a1         10 e       
    11 e          12 a1         13 e          14 e          15 a1      
 
   Time after variat. SCF:      0.7
   Time prior to 1st pass:      0.7

 #quartets = 7.350D+02 #integrals = 2.363D+03 #direct =  0.0% #cached =100.0%


 Integral file          = ./H3N1.aoints.0
 Record size in doubles =    65536    No. of integs per rec  =    43688
 Max. records in memory =        2    Max. records in file   =  1696391
 No. of bits per label  =        8    No. of bits per value  =       64


 Grid_pts file          = ./H3N1.gridpts.0
 Record size in doubles =  12289        No. of grid_pts per rec  =   3070
 Max. records in memory =     16        Max. recs in file   =   9046689


           Memory utilization after 1st SCF pass: 
           Heap Space remaining (MW):       32.44            32438919
          Stack Space remaining (MW):       32.77            32767788

   convergence    iter        energy       DeltaE   RMS-Dens  Diis-err    time
 ---------------- ----- ----------------- --------- --------- ---------  ------
 d= 0,ls=0.0,diis     1    -56.5273405489 -6.83D+01  1.47D-02  1.89D-02     0.9
 d= 0,ls=0.0,diis     2    -56.5291423446 -1.80D-03  4.87D-03  1.64D-02     0.9
 d= 0,ls=0.0,diis     3    -56.5307911741 -1.65D-03  1.18D-03  9.05D-04     0.9
 d= 0,ls=0.0,diis     4    -56.5308924093 -1.01D-04  1.38D-04  7.65D-07     1.0
 d= 0,ls=0.0,diis     5    -56.5308925765 -1.67D-07  1.39D-05  5.38D-09     1.0
 d= 0,ls=0.0,diis     6    -56.5308925781 -1.53D-09  6.99D-07  3.06D-11     1.1


         Total DFT energy =      -56.530892578077
      One electron energy =      -99.391819776278
           Coulomb energy =       39.106387827578
    Exchange-Corr. energy =       -8.028414859309
 Nuclear repulsion energy =       11.782954229932

 Numeric. integr. density =        9.999999468516

     Total iterative time =      0.3s


 
                  Occupations of the irreducible representations
                  ----------------------------------------------
 
                     irrep           alpha         beta
                     --------     --------     --------
                     a1                3.0          3.0
                     a2                0.0          0.0
                     e                 2.0          2.0
 
 
                       DFT Final Molecular Orbital Analysis
                       ------------------------------------
 
 Vector    1  Occ=2.000000D+00  E=-1.429720D+01  Symmetry=a1
              MO Center= -3.4D-21, -3.8D-21,  6.9D-02, r^2= 2.0D-02
   Bfn.  Coefficient  Atom+Function         Bfn.  Coefficient  Atom+Function  
  ----- ------------  ---------------      ----- ------------  ---------------
     1      0.995172  1 N  s          
 
 Vector    2  Occ=2.000000D+00  E=-8.401366D-01  Symmetry=a1
              MO Center= -1.0D-17,  8.0D-17, -1.2D-01, r^2= 7.1D-01
   Bfn.  Coefficient  Atom+Function         Bfn.  Coefficient  Atom+Function  
  ----- ------------  ---------------      ----- ------------  ---------------
     6      0.433732  1 N  s                  2      0.420101  1 N  s          
     1     -0.200571  1 N  s          
 
 Vector    3  Occ=2.000000D+00  E=-4.588763D-01  Symmetry=e
              MO Center=  8.1D-02,  1.9D-01, -6.4D-02, r^2= 1.0D+00
   Bfn.  Coefficient  Atom+Function         Bfn.  Coefficient  Atom+Function  
  ----- ------------  ---------------      ----- ------------  ---------------
     3      0.397261  1 N  px                10      0.291758  2 H  s          
     4      0.266914  1 N  py                14     -0.195466  4 H  s          
    11      0.193412  2 H  s                  7      0.188920  1 N  px         
 
 Vector    4  Occ=2.000000D+00  E=-4.588763D-01  Symmetry=e
              MO Center= -8.1D-02, -1.9D-01, -6.4D-02, r^2= 1.0D+00
   Bfn.  Coefficient  Atom+Function         Bfn.  Coefficient  Atom+Function  
  ----- ------------  ---------------      ----- ------------  ---------------
     4      0.397261  1 N  py                12     -0.281299  3 H  s          
     3     -0.266914  1 N  px                14      0.224041  4 H  s          
     8      0.188920  1 N  py                13     -0.186478  3 H  s          
 
 Vector    5  Occ=2.000000D+00  E=-2.280673D-01  Symmetry=a1
              MO Center=  9.5D-18,  1.2D-18,  2.6D-01, r^2= 8.0D-01
   Bfn.  Coefficient  Atom+Function         Bfn.  Coefficient  Atom+Function  
  ----- ------------  ---------------      ----- ------------  ---------------
     5      0.568214  1 N  pz                 9      0.507212  1 N  pz         
     6      0.223677  1 N  s          
 
 Vector    6  Occ=0.000000D+00  E= 7.529701D-02  Symmetry=a1
              MO Center=  0.0D+00, -8.3D-17, -3.1D-01, r^2= 3.1D+00
   Bfn.  Coefficient  Atom+Function         Bfn.  Coefficient  Atom+Function  
  ----- ------------  ---------------      ----- ------------  ---------------
     6      1.688631  1 N  s                 11     -0.886220  2 H  s          
    13     -0.886220  3 H  s                 15     -0.886220  4 H  s          
     9     -0.348578  1 N  pz                 2      0.188862  1 N  s          
     5     -0.167770  1 N  pz         
 
 Vector    7  Occ=0.000000D+00  E= 1.669527D-01  Symmetry=e
              MO Center=  8.6D-02, -5.6D-01, -2.9D-01, r^2= 2.7D+00
   Bfn.  Coefficient  Atom+Function         Bfn.  Coefficient  Atom+Function  
  ----- ------------  ---------------      ----- ------------  ---------------
    13      1.623747  3 H  s                  8      0.980420  1 N  py         
    15     -0.887801  4 H  s                 11     -0.735947  2 H  s          
     4      0.398173  1 N  py                 7     -0.320273  1 N  px         
 
 Vector    8  Occ=0.000000D+00  E= 1.669527D-01  Symmetry=e
              MO Center= -8.6D-02,  5.6D-01, -2.9D-01, r^2= 2.7D+00
   Bfn.  Coefficient  Atom+Function         Bfn.  Coefficient  Atom+Function  
  ----- ------------  ---------------      ----- ------------  ---------------
    11      1.450043  2 H  s                 15     -1.362370  4 H  s          
     7     -0.980420  1 N  px                 3     -0.398173  1 N  px         
     8     -0.320273  1 N  py         
 
 Vector    9  Occ=0.000000D+00  E= 7.254403D-01  Symmetry=a1
              MO Center= -4.4D-15,  2.8D-16,  2.2D-01, r^2= 1.4D+00
   Bfn.  Coefficient  Atom+Function         Bfn.  Coefficient  Atom+Function  
  ----- ------------  ---------------      ----- ------------  ---------------
     9      1.126658  1 N  pz                 5     -0.997922  1 N  pz         
     6     -0.343370  1 N  s                 11      0.174603  2 H  s          
    13      0.174603  3 H  s                 15      0.174603  4 H  s          
 
 Vector   10  Occ=0.000000D+00  E= 7.327334D-01  Symmetry=e
              MO Center=  1.2D-01,  4.2D-02,  1.5D-01, r^2= 1.8D+00
   Bfn.  Coefficient  Atom+Function         Bfn.  Coefficient  Atom+Function  
  ----- ------------  ---------------      ----- ------------  ---------------
     7      1.233748  1 N  px                14      0.790666  4 H  s          
     8     -0.772568  1 N  py                12     -0.605392  3 H  s          
     3     -0.393360  1 N  px                 4      0.246321  1 N  py         
    10     -0.185274  2 H  s          
 
 Vector   11  Occ=0.000000D+00  E= 7.327334D-01  Symmetry=e
              MO Center= -1.2D-01, -4.2D-02,  1.5D-01, r^2= 1.8D+00
   Bfn.  Coefficient  Atom+Function         Bfn.  Coefficient  Atom+Function  
  ----- ------------  ---------------      ----- ------------  ---------------
     8      1.233748  1 N  py                10     -0.806015  2 H  s          
     7      0.772568  1 N  px                12      0.563459  3 H  s          
     4     -0.393360  1 N  py                 3     -0.246321  1 N  px         
    14      0.242556  4 H  s          
 
 Vector   12  Occ=0.000000D+00  E= 8.897770D-01  Symmetry=a1
              MO Center= -8.5D-15,  6.6D-14, -3.4D-01, r^2= 1.6D+00
   Bfn.  Coefficient  Atom+Function         Bfn.  Coefficient  Atom+Function  
  ----- ------------  ---------------      ----- ------------  ---------------
    10      0.785173  2 H  s                 12      0.785173  3 H  s          
    14      0.785173  4 H  s                 11     -0.473944  2 H  s          
    13     -0.473944  3 H  s                 15     -0.473944  4 H  s          
     2     -0.459267  1 N  s                  6      0.307166  1 N  s          
     5      0.159485  1 N  pz         
 
 Vector   13  Occ=0.000000D+00  E= 9.293531D-01  Symmetry=e
              MO Center=  1.7D-01,  3.2D-01, -1.6D-01, r^2= 1.8D+00
   Bfn.  Coefficient  Atom+Function         Bfn.  Coefficient  Atom+Function  
  ----- ------------  ---------------      ----- ------------  ---------------
    11      1.433288  2 H  s                  7     -0.965456  1 N  px         
    15     -0.899373  4 H  s                  3      0.762840  1 N  px         
    10     -0.721632  2 H  s                  8     -0.717678  1 N  py         
     4      0.567063  1 N  py                13     -0.533915  3 H  s          
    14      0.452817  4 H  s                 12      0.268816  3 H  s          
 
 Vector   14  Occ=0.000000D+00  E= 9.293531D-01  Symmetry=e
              MO Center= -1.7D-01, -3.2D-01, -1.6D-01, r^2= 1.8D+00
   Bfn.  Coefficient  Atom+Function         Bfn.  Coefficient  Atom+Function  
  ----- ------------  ---------------      ----- ------------  ---------------
    13      1.346762  3 H  s                 15     -1.135765  4 H  s          
     8      0.965456  1 N  py                 4     -0.762840  1 N  py         
     7     -0.717678  1 N  px                12     -0.678068  3 H  s          
    14      0.571836  4 H  s                  3      0.567063  1 N  px         
    11     -0.210997  2 H  s          
 
 Vector   15  Occ=0.000000D+00  E= 1.226867D+00  Symmetry=a1
              MO Center= -2.0D-15, -1.0D-15, -1.2D-01, r^2= 1.7D+00
   Bfn.  Coefficient  Atom+Function         Bfn.  Coefficient  Atom+Function  
  ----- ------------  ---------------      ----- ------------  ---------------
     6      3.564733  1 N  s                  2     -1.868274  1 N  s          
    11     -0.726457  2 H  s                 13     -0.726457  3 H  s          
    15     -0.726457  4 H  s                  9     -0.543277  1 N  pz         
    10     -0.301023  2 H  s                 12     -0.301023  3 H  s          
    14     -0.301023  4 H  s          
 

 center of mass
 --------------
 x =   0.00000000 y =  -0.00000000 z =   0.02713329

 moments of inertia (a.u.)
 ------------------
           6.005026452947           0.000000000000           0.000000000000
           0.000000000000           6.005026452947          -0.000000000000
           0.000000000000          -0.000000000000          10.295904561452
 
     Multipole analysis of the density
     ---------------------------------
 
     L   x y z        total         alpha         beta         nuclear
     -   - - -        -----         -----         ----         -------
     0   0 0 0     -0.000000     -5.000000     -5.000000     10.000000
 
     1   1 0 0      0.000000      0.000000      0.000000      0.000000
     1   0 1 0     -0.000000     -0.000000     -0.000000     -0.000000
     1   0 0 1     -0.753527     -0.153052     -0.153052     -0.447422
 
     2   2 0 0     -4.392728     -4.750355     -4.750355      5.107982
     2   1 1 0     -0.000000     -0.000000     -0.000000      0.000000
     2   1 0 1     -0.000000     -0.000000     -0.000000      0.000000
     2   0 2 0     -4.392728     -4.750355     -4.750355      5.107982
     2   0 1 1      0.000000      0.000000      0.000000      0.000000
     2   0 0 2     -6.713306     -3.728576     -3.728576      0.743845
 

 Parallel integral file used       1 records with       0 large values

 Line search: 
     step= 1.00 grad=-1.8D-02 hess= 6.6D-03 energy=    -56.530893 mode=downhill
 new step= 1.36                   predicted energy=    -56.531763

          --------
          Step   1
          --------
 
 
                         Geometry "geometry" -> "geometry"
                         ---------------------------------
 
 Output coordinates in angstroms (scale by  1.889725989 to convert to a.u.)
 
  No.       Tag          Charge          X              Y              Z
 ---- ---------------- ---------- -------------- -------------- --------------
    1 N                    7.0000     0.00000000     0.00000000     0.05515936
    2 H                    1.0000     0.67727404     0.67727404    -0.23636124
    3 H                    1.0000     0.24789950    -0.92517354    -0.23636124
    4 H                    1.0000    -0.92517354     0.24789950    -0.23636124
 
      Atomic Mass 
      ----------- 
 
      N                 14.003070
      H                  1.007825
 

 Effective nuclear repulsion energy (a.u.)      12.0564314973

            Nuclear Dipole moment (a.u.) 
            ----------------------------
        X                 Y               Z
 ---------------- ---------------- ----------------
    -0.0000000000     0.0000000000    -0.6103214124
 
      Symmetry information
      --------------------
 
 Group name             C3v       
 Group number             17
 Group order               6
 No. of unique centers     2
 
      Symmetry unique atoms
 
     1    2
 
 
                                 NWChem DFT Module
                                 -----------------
 
 
                                 H3N1 dft optimize
 
 
  Caching 1-el integrals 
  Rotation of axis 
 
            General Information
            -------------------
          SCF calculation type: DFT
          Wavefunction type:  closed shell.
          No. of atoms     :     4
          No. of electrons :    10
           Alpha electrons :     5
            Beta electrons :     5
          Charge           :     0
          Spin multiplicity:     1
          Use of symmetry is: on ; symmetry adaption is: on 
          Maximum number of iterations:  30
          AO basis - number of functions:    15
                     number of shells:    11
          Convergence on energy requested: 1.00D-06
          Convergence on density requested: 1.00D-05
          Convergence on gradient requested: 5.00D-04
 
              XC Information
              --------------
                         B3LYP Method XC Potential
                     Hartree-Fock (Exact) Exchange  0.200          
                        Slater Exchange Functional  0.800 local    
                    Becke 1988 Exchange Functional  0.720 non-local
              Lee-Yang-Parr Correlation Functional  0.810          
                  VWN I RPA Correlation Functional  0.190 local    
 
             Grid Information
             ----------------
          Grid used for XC integration:  medium    
          Radial quadrature: Mura-Knowles        
          Angular quadrature: Lebedev. 
          Tag              B.-S. Rad. Rad. Pts. Rad. Cut. Ang. Pts.
          ---              ---------- --------- --------- ---------
          N                   0.65       49           5.0       434
          H                   0.35       45           6.0       434
          Grid pruning is: on 
          Number of quadrature shells:    94
          Spatial weights used:  Erf1
 
          Convergence Information
          -----------------------
          Convergence aids based upon iterative change in 
          total energy or number of iterations. 
          Levelshifting, if invoked, occurs when the 
          HOMO/LUMO gap drops below (HL_TOL): 1.00D-02
          DIIS, if invoked, will attempt to extrapolate 
          using up to (NFOCK): 10 stored Fock matrices.

                    Damping( 0%)  Levelshifting(0.5)       DIIS
                  --------------- ------------------- ---------------
          dE  on:    start            ASAP                start   
          dE off:    2 iters         30 iters            30 iters 

 
      Screening Tolerance Information
      -------------------------------
          Density screening/tol_rho: 1.00D-10
          AO Gaussian exp screening on grid/accAOfunc:  14
          CD Gaussian exp screening on grid/accCDfunc:  20
          XC Gaussian exp screening on grid/accXCfunc:  20
          Schwarz screening/accCoul: 1.00D-08


 Loading old vectors from job with title :

H3N1 dft optimize

 
      Symmetry analysis of molecular orbitals - initial
      -------------------------------------------------
 
  Numbering of irreducible representations: 
 
     1 a1          2 a2          3 e       
 
  Orbital symmetries:
 
     1 a1          2 a1          3 e           4 e           5 a1      
     6 a1          7 e           8 e           9 a1         10 e       
    11 e          12 a1         13 e          14 e          15 a1      
 
   Time after variat. SCF:      1.1
   Time prior to 1st pass:      1.1

 #quartets = 7.350D+02 #integrals = 2.363D+03 #direct =  0.0% #cached =100.0%


 Integral file          = ./H3N1.aoints.0
 Record size in doubles =    65536    No. of integs per rec  =    43688
 Max. records in memory =        2    Max. records in file   =  1696391
 No. of bits per label  =        8    No. of bits per value  =       64


 Grid_pts file          = ./H3N1.gridpts.0
 Record size in doubles =  12289        No. of grid_pts per rec  =   3070
 Max. records in memory =     16        Max. recs in file   =   9046689


           Memory utilization after 1st SCF pass: 
           Heap Space remaining (MW):       32.44            32438919
          Stack Space remaining (MW):       32.77            32767788

   convergence    iter        energy       DeltaE   RMS-Dens  Diis-err    time
 ---------------- ----- ----------------- --------- --------- ---------  ------
 d= 0,ls=0.0,diis     1    -56.5305302039 -6.86D+01  5.27D-03  2.82D-03     1.2
 d= 0,ls=0.0,diis     2    -56.5307635130 -2.33D-04  1.84D-03  2.42D-03     1.3
 d= 0,ls=0.0,diis     3    -56.5310077306 -2.44D-04  3.84D-04  1.16D-04     1.3
 d= 0,ls=0.0,diis     4    -56.5310204449 -1.27D-05  4.25D-05  6.48D-08     1.3
 d= 0,ls=0.0,diis     5    -56.5310204595 -1.45D-08  4.01D-06  5.78D-10     1.4


         Total DFT energy =      -56.531020459452
      One electron energy =      -99.894138157268
           Coulomb energy =       39.365261918154
    Exchange-Corr. energy =       -8.058575717636
 Nuclear repulsion energy =       12.056431497299

 Numeric. integr. density =        9.999999154354

     Total iterative time =      0.3s


 
                  Occupations of the irreducible representations
                  ----------------------------------------------
 
                     irrep           alpha         beta
                     --------     --------     --------
                     a1                3.0          3.0
                     a2                0.0          0.0
                     e                 2.0          2.0
 
 
                       DFT Final Molecular Orbital Analysis
                       ------------------------------------
 
 Vector    1  Occ=2.000000D+00  E=-1.428970D+01  Symmetry=a1
              MO Center=  6.1D-18,  5.5D-19,  5.5D-02, r^2= 2.0D-02
   Bfn.  Coefficient  Atom+Function         Bfn.  Coefficient  Atom+Function  
  ----- ------------  ---------------      ----- ------------  ---------------
     1      0.995149  1 N  s          
 
 Vector    2  Occ=2.000000D+00  E=-8.477117D-01  Symmetry=a1
              MO Center=  8.7D-19,  2.1D-17, -1.3D-01, r^2= 7.0D-01
   Bfn.  Coefficient  Atom+Function         Bfn.  Coefficient  Atom+Function  
  ----- ------------  ---------------      ----- ------------  ---------------
     6      0.424170  1 N  s                  2      0.421023  1 N  s          
     1     -0.201057  1 N  s          
 
 Vector    3  Occ=2.000000D+00  E=-4.662683D-01  Symmetry=e
              MO Center=  5.1D-03, -2.0D-01, -6.9D-02, r^2= 9.7D-01
   Bfn.  Coefficient  Atom+Function         Bfn.  Coefficient  Atom+Function  
  ----- ------------  ---------------      ----- ------------  ---------------
     4      0.448004  1 N  py                12     -0.297370  3 H  s          
     8      0.208146  1 N  py                13     -0.189190  3 H  s          
     3     -0.179001  1 N  px                14      0.179299  4 H  s          
 
 Vector    4  Occ=2.000000D+00  E=-4.662683D-01  Symmetry=e
              MO Center= -5.1D-03,  2.0D-01, -6.9D-02, r^2= 9.7D-01
   Bfn.  Coefficient  Atom+Function         Bfn.  Coefficient  Atom+Function  
  ----- ------------  ---------------      ----- ------------  ---------------
     3      0.448004  1 N  px                10      0.275205  2 H  s          
    14     -0.239855  4 H  s                  7      0.208146  1 N  px         
     4      0.179001  1 N  py                11      0.175088  2 H  s          
    15     -0.152598  4 H  s          
 
 Vector    5  Occ=2.000000D+00  E=-2.274913D-01  Symmetry=a1
              MO Center=  6.4D-18,  2.6D-18,  2.4D-01, r^2= 8.0D-01
   Bfn.  Coefficient  Atom+Function         Bfn.  Coefficient  Atom+Function  
  ----- ------------  ---------------      ----- ------------  ---------------
     5      0.571589  1 N  pz                 9      0.513383  1 N  pz         
     6      0.204566  1 N  s          
 
 Vector    6  Occ=0.000000D+00  E= 8.293605D-02  Symmetry=a1
              MO Center= -1.7D-16,  2.8D-16, -3.1D-01, r^2= 3.1D+00
   Bfn.  Coefficient  Atom+Function         Bfn.  Coefficient  Atom+Function  
  ----- ------------  ---------------      ----- ------------  ---------------
     6      1.758293  1 N  s                 11     -0.909567  2 H  s          
    13     -0.909567  3 H  s                 15     -0.909567  4 H  s          
     9     -0.333245  1 N  pz                 2      0.186609  1 N  s          
     5     -0.154040  1 N  pz         
 
 Vector    7  Occ=0.000000D+00  E= 1.746402D-01  Symmetry=e
              MO Center=  3.6D-01, -4.5D-01, -3.0D-01, r^2= 2.7D+00
   Bfn.  Coefficient  Atom+Function         Bfn.  Coefficient  Atom+Function  
  ----- ------------  ---------------      ----- ------------  ---------------
    13      1.661147  3 H  s                 11     -1.131633  2 H  s          
     8      1.057803  1 N  py                15     -0.529515  4 H  s          
     4      0.409618  1 N  py         
 
 Vector    8  Occ=0.000000D+00  E= 1.746402D-01  Symmetry=e
              MO Center= -3.6D-01,  4.5D-01, -3.0D-01, r^2= 2.7D+00
   Bfn.  Coefficient  Atom+Function         Bfn.  Coefficient  Atom+Function  
  ----- ------------  ---------------      ----- ------------  ---------------
    15      1.612412  4 H  s                 11     -1.264779  2 H  s          
     7      1.057803  1 N  px                 3      0.409618  1 N  px         
    13     -0.347633  3 H  s          
 
 Vector    9  Occ=0.000000D+00  E= 7.249982D-01  Symmetry=a1
              MO Center= -4.8D-15, -1.4D-14,  1.9D-01, r^2= 1.4D+00
   Bfn.  Coefficient  Atom+Function         Bfn.  Coefficient  Atom+Function  
  ----- ------------  ---------------      ----- ------------  ---------------
     9      1.127071  1 N  pz                 5     -0.993815  1 N  pz         
     6     -0.362696  1 N  s                 11      0.164924  2 H  s          
    13      0.164924  3 H  s                 15      0.164924  4 H  s          
 
 Vector   10  Occ=0.000000D+00  E= 7.268805D-01  Symmetry=e
              MO Center=  1.3D-01,  9.2D-02,  1.5D-01, r^2= 1.7D+00
   Bfn.  Coefficient  Atom+Function         Bfn.  Coefficient  Atom+Function  
  ----- ------------  ---------------      ----- ------------  ---------------
     7      1.168508  1 N  px                 8     -0.994131  1 N  py         
    14      0.732051  4 H  s                 12     -0.666925  3 H  s          
     3     -0.356628  1 N  px                 4      0.303408  1 N  py         
    15      0.199600  4 H  s                 13     -0.181843  3 H  s          
 
 Vector   11  Occ=0.000000D+00  E= 7.268805D-01  Symmetry=e
              MO Center= -1.3D-01, -9.2D-02,  1.5D-01, r^2= 1.7D+00
   Bfn.  Coefficient  Atom+Function         Bfn.  Coefficient  Atom+Function  
  ----- ------------  ---------------      ----- ------------  ---------------
     8      1.168508  1 N  py                 7      0.994131  1 N  px         
    10     -0.807699  2 H  s                 12      0.460251  3 H  s          
     4     -0.356628  1 N  py                14      0.347448  4 H  s          
     3     -0.303408  1 N  px                11     -0.220226  2 H  s          
 
 Vector   12  Occ=0.000000D+00  E= 9.139972D-01  Symmetry=a1
              MO Center=  1.2D-14, -1.6D-14, -3.2D-01, r^2= 1.5D+00
   Bfn.  Coefficient  Atom+Function         Bfn.  Coefficient  Atom+Function  
  ----- ------------  ---------------      ----- ------------  ---------------
    10      0.802289  2 H  s                 12      0.802289  3 H  s          
    14      0.802289  4 H  s                 11     -0.432587  2 H  s          
    13     -0.432587  3 H  s                 15     -0.432587  4 H  s          
     2     -0.421602  1 N  s                  5      0.187454  1 N  pz         
 
 Vector   13  Occ=0.000000D+00  E= 9.523031D-01  Symmetry=e
              MO Center= -7.0D-02, -3.6D-01, -1.7D-01, r^2= 1.7D+00
   Bfn.  Coefficient  Atom+Function         Bfn.  Coefficient  Atom+Function  
  ----- ------------  ---------------      ----- ------------  ---------------
    13      1.420776  3 H  s                  8      1.031806  1 N  py         
    15     -0.994873  4 H  s                  4     -0.845222  1 N  py         
    12     -0.739523  3 H  s                  7     -0.549048  1 N  px         
    14      0.517838  4 H  s                  3      0.449763  1 N  px         
    11     -0.425903  2 H  s                 10      0.221685  2 H  s          
 
 Vector   14  Occ=0.000000D+00  E= 9.523031D-01  Symmetry=e
              MO Center=  7.0D-02,  3.6D-01, -1.7D-01, r^2= 1.7D+00
   Bfn.  Coefficient  Atom+Function         Bfn.  Coefficient  Atom+Function  
  ----- ------------  ---------------      ----- ------------  ---------------
    11      1.394676  2 H  s                 15     -1.066181  4 H  s          
     7     -1.031806  1 N  px                 3      0.845222  1 N  px         
    10     -0.725938  2 H  s                 14      0.554954  4 H  s          
     8     -0.549048  1 N  py                 4      0.449763  1 N  py         
    13     -0.328495  3 H  s                 12      0.170984  3 H  s          
 
 Vector   15  Occ=0.000000D+00  E= 1.225455D+00  Symmetry=a1
              MO Center= -8.5D-16, -1.2D-15, -1.2D-01, r^2= 1.7D+00
   Bfn.  Coefficient  Atom+Function         Bfn.  Coefficient  Atom+Function  
  ----- ------------  ---------------      ----- ------------  ---------------
     6      3.670627  1 N  s                  2     -1.883646  1 N  s          
    11     -0.770828  2 H  s                 13     -0.770828  3 H  s          
    15     -0.770828  4 H  s                  9     -0.520766  1 N  pz         
    10     -0.274385  2 H  s                 12     -0.274385  3 H  s          
    14     -0.274385  4 H  s          
 

 center of mass
 --------------
 x =  -0.00000000 y =  -0.00000000 z =   0.00641151

 moments of inertia (a.u.)
 ------------------
           5.707235188034           0.000000000000          -0.000000000000
           0.000000000000           5.707235188034           0.000000000000
          -0.000000000000           0.000000000000           9.905192224561
 
     Multipole analysis of the density
     ---------------------------------
 
     L   x y z        total         alpha         beta         nuclear
     -   - - -        -----         -----         ----         -------
     0   0 0 0     -0.000000     -5.000000     -5.000000     10.000000
 
     1   1 0 0      0.000000      0.000000      0.000000     -0.000000
     1   0 1 0     -0.000000     -0.000000     -0.000000      0.000000
     1   0 0 1     -0.730259     -0.059969     -0.059969     -0.610321
 
     2   2 0 0     -4.367843     -4.640993     -4.640993      4.914143
     2   1 1 0     -0.000000     -0.000000     -0.000000      0.000000
     2   1 0 1      0.000000     -0.000000     -0.000000      0.000000
     2   0 2 0     -4.367843     -4.640993     -4.640993      4.914143
     2   0 1 1      0.000000      0.000000      0.000000     -0.000000
     2   0 0 2     -6.653288     -3.663927     -3.663927      0.674566
 

 Parallel integral file used       1 records with       0 large values

 
 
                            NWChem DFT Gradient Module
                            --------------------------
 
 
                                 H3N1 dft optimize
 
 

  charge          =   0.00
  wavefunction    = closed shell

  Rotation of axis 
  Using symmetry


                         DFT ENERGY GRADIENTS

    atom               coordinates                        gradient
                 x          y          z           x          y          z
   1 N       0.000000   0.000000   0.104236    0.000000   0.000000   0.000068
   2 H       1.279862   1.279862  -0.446658   -0.007745  -0.007745  -0.000023
   3 H       0.468462  -1.748324  -0.446658   -0.002835   0.010580  -0.000023
   4 H      -1.748324   0.468462  -0.446658    0.010580  -0.002835  -0.000023
 
                 ----------------------------------------
                 |  Time  |  1-e(secs)   |  2-e(secs)   |
                 ----------------------------------------
                 |  CPU   |       0.00   |       0.03   |
                 ----------------------------------------
                 |  WALL  |       0.00   |       0.03   |
                 ----------------------------------------

  Step       Energy      Delta E   Gmax     Grms     Xrms     Xmax   Walltime
  ---- ---------------- -------- -------- -------- -------- -------- --------
@    1     -56.53102046 -1.1D-02  0.01058  0.00548  0.07440  0.12794      2.3
                                                                    

 
                                 NWChem DFT Module
                                 -----------------
 
 
                                 H3N1 dft optimize
 
 
  Caching 1-el integrals 
  Rotation of axis 
 
            General Information
            -------------------
          SCF calculation type: DFT
          Wavefunction type:  closed shell.
          No. of atoms     :     4
          No. of electrons :    10
           Alpha electrons :     5
            Beta electrons :     5
          Charge           :     0
          Spin multiplicity:     1
          Use of symmetry is: on ; symmetry adaption is: on 
          Maximum number of iterations:  30
          AO basis - number of functions:    15
                     number of shells:    11
          Convergence on energy requested: 1.00D-06
          Convergence on density requested: 1.00D-05
          Convergence on gradient requested: 5.00D-04
 
              XC Information
              --------------
                         B3LYP Method XC Potential
                     Hartree-Fock (Exact) Exchange  0.200          
                        Slater Exchange Functional  0.800 local    
                    Becke 1988 Exchange Functional  0.720 non-local
              Lee-Yang-Parr Correlation Functional  0.810          
                  VWN I RPA Correlation Functional  0.190 local    
 
             Grid Information
             ----------------
          Grid used for XC integration:  medium    
          Radial quadrature: Mura-Knowles        
          Angular quadrature: Lebedev. 
          Tag              B.-S. Rad. Rad. Pts. Rad. Cut. Ang. Pts.
          ---              ---------- --------- --------- ---------
          N                   0.65       49           5.0       434
          H                   0.35       45           6.0       434
          Grid pruning is: on 
          Number of quadrature shells:    94
          Spatial weights used:  Erf1
 
          Convergence Information
          -----------------------
          Convergence aids based upon iterative change in 
          total energy or number of iterations. 
          Levelshifting, if invoked, occurs when the 
          HOMO/LUMO gap drops below (HL_TOL): 1.00D-02
          DIIS, if invoked, will attempt to extrapolate 
          using up to (NFOCK): 10 stored Fock matrices.

                    Damping( 0%)  Levelshifting(0.5)       DIIS
                  --------------- ------------------- ---------------
          dE  on:    start            ASAP                start   
          dE off:    2 iters         30 iters            30 iters 

 
      Screening Tolerance Information
      -------------------------------
          Density screening/tol_rho: 1.00D-10
          AO Gaussian exp screening on grid/accAOfunc:  14
          CD Gaussian exp screening on grid/accCDfunc:  20
          XC Gaussian exp screening on grid/accXCfunc:  20
          Schwarz screening/accCoul: 1.00D-08


 Loading old vectors from job with title :

H3N1 dft optimize

 
      Symmetry analysis of molecular orbitals - initial
      -------------------------------------------------
 
  Numbering of irreducible representations: 
 
     1 a1          2 a2          3 e       
 
  Orbital symmetries:
 
     1 a1          2 a1          3 e           4 e           5 a1      
     6 a1          7 e           8 e           9 a1         10 e       
    11 e          12 a1         13 e          14 e          15 a1      
 
   Time after variat. SCF:      1.5
   Time prior to 1st pass:      1.5

 #quartets = 7.350D+02 #integrals = 2.363D+03 #direct =  0.0% #cached =100.0%


 Integral file          = ./H3N1.aoints.0
 Record size in doubles =    65536    No. of integs per rec  =    43688
 Max. records in memory =        2    Max. records in file   =  1696391
 No. of bits per label  =        8    No. of bits per value  =       64


 Grid_pts file          = ./H3N1.gridpts.0
 Record size in doubles =  12289        No. of grid_pts per rec  =   3070
 Max. records in memory =     16        Max. recs in file   =   9046689


           Memory utilization after 1st SCF pass: 
           Heap Space remaining (MW):       32.44            32438919
          Stack Space remaining (MW):       32.77            32767788

   convergence    iter        energy       DeltaE   RMS-Dens  Diis-err    time
 ---------------- ----- ----------------- --------- --------- ---------  ------
 d= 0,ls=0.0,diis     1    -56.5314333085 -6.84D+01  2.51D-03  1.15D-03     1.6
 d= 0,ls=0.0,diis     2    -56.5316158014 -1.82D-04  9.98D-04  3.04D-04     1.7
 d= 0,ls=0.0,diis     3    -56.5316337282 -1.79D-05  3.54D-04  1.56D-04     1.7
 d= 0,ls=0.0,diis     4    -56.5316501288 -1.64D-05  2.02D-05  5.25D-08     1.8
 d= 0,ls=0.0,diis     5    -56.5316501371 -8.32D-09  2.65D-06  1.86D-10     1.8


         Total DFT energy =      -56.531650137092
      One electron energy =      -99.638196020539
           Coulomb energy =       39.243033136038
    Exchange-Corr. energy =       -8.042290903039
 Nuclear repulsion energy =       11.905803650449

 Numeric. integr. density =        9.999999011609

     Total iterative time =      0.3s


 
                  Occupations of the irreducible representations
                  ----------------------------------------------
 
                     irrep           alpha         beta
                     --------     --------     --------
                     a1                3.0          3.0
                     a2                0.0          0.0
                     e                 2.0          2.0
 
 
                       DFT Final Molecular Orbital Analysis
                       ------------------------------------
 
 Vector    1  Occ=2.000000D+00  E=-1.429084D+01  Symmetry=a1
              MO Center= -6.1D-18,  1.6D-18,  3.6D-02, r^2= 2.0D-02
   Bfn.  Coefficient  Atom+Function         Bfn.  Coefficient  Atom+Function  
  ----- ------------  ---------------      ----- ------------  ---------------
     1      0.995156  1 N  s          
 
 Vector    2  Occ=2.000000D+00  E=-8.380523D-01  Symmetry=a1
              MO Center=  1.4D-16,  4.3D-18, -1.3D-01, r^2= 7.1D-01
   Bfn.  Coefficient  Atom+Function         Bfn.  Coefficient  Atom+Function  
  ----- ------------  ---------------      ----- ------------  ---------------
     6      0.428874  1 N  s                  2      0.422666  1 N  s          
     1     -0.201586  1 N  s          
 
 Vector    3  Occ=2.000000D+00  E=-4.633840D-01  Symmetry=e
              MO Center=  2.0D-01,  4.5D-02, -7.7D-02, r^2= 9.8D-01
   Bfn.  Coefficient  Atom+Function         Bfn.  Coefficient  Atom+Function  
  ----- ------------  ---------------      ----- ------------  ---------------
     4      0.420737  1 N  py                10      0.285500  2 H  s          
     3      0.231043  1 N  px                12     -0.214710  3 H  s          
     8      0.199765  1 N  py                11      0.181943  2 H  s          
 
 Vector    4  Occ=2.000000D+00  E=-4.633840D-01  Symmetry=e
              MO Center= -2.0D-01, -4.5D-02, -7.7D-02, r^2= 9.8D-01
   Bfn.  Coefficient  Atom+Function         Bfn.  Coefficient  Atom+Function  
  ----- ------------  ---------------      ----- ------------  ---------------
     3      0.420737  1 N  px                14     -0.288796  4 H  s          
     4     -0.231043  1 N  py                12      0.205704  3 H  s          
     7      0.199765  1 N  px                15     -0.184044  4 H  s          
 
 Vector    5  Occ=2.000000D+00  E=-2.242098D-01  Symmetry=a1
              MO Center= -3.4D-17, -5.8D-17,  2.0D-01, r^2= 8.0D-01
   Bfn.  Coefficient  Atom+Function         Bfn.  Coefficient  Atom+Function  
  ----- ------------  ---------------      ----- ------------  ---------------
     5      0.576517  1 N  pz                 9      0.518815  1 N  pz         
     6      0.186845  1 N  s          
 
 Vector    6  Occ=0.000000D+00  E= 8.056518D-02  Symmetry=a1
              MO Center=  0.0D+00,  1.1D-16, -3.0D-01, r^2= 3.1D+00
   Bfn.  Coefficient  Atom+Function         Bfn.  Coefficient  Atom+Function  
  ----- ------------  ---------------      ----- ------------  ---------------
     6      1.727098  1 N  s                 11     -0.896370  2 H  s          
    13     -0.896370  3 H  s                 15     -0.896370  4 H  s          
     9     -0.301133  1 N  pz                 2      0.193253  1 N  s          
 
 Vector    7  Occ=0.000000D+00  E= 1.719936D-01  Symmetry=e
              MO Center=  2.0D-02, -5.8D-01, -2.8D-01, r^2= 2.7D+00
   Bfn.  Coefficient  Atom+Function         Bfn.  Coefficient  Atom+Function  
  ----- ------------  ---------------      ----- ------------  ---------------
    13      1.656132  3 H  s                 15     -0.992270  4 H  s          
     8      0.983886  1 N  py                11     -0.663862  2 H  s          
     7     -0.388183  1 N  px                 4      0.383166  1 N  py         
     3     -0.151175  1 N  px         
 
 Vector    8  Occ=0.000000D+00  E= 1.719936D-01  Symmetry=e
              MO Center= -2.0D-02,  5.8D-01, -2.8D-01, r^2= 2.7D+00
   Bfn.  Coefficient  Atom+Function         Bfn.  Coefficient  Atom+Function  
  ----- ------------  ---------------      ----- ------------  ---------------
    11      1.529056  2 H  s                 15     -1.339449  4 H  s          
     7     -0.983886  1 N  px                 8     -0.388183  1 N  py         
     3     -0.383166  1 N  px                13     -0.189607  3 H  s          
     4     -0.151175  1 N  py         
 
 Vector    9  Occ=0.000000D+00  E= 7.242634D-01  Symmetry=a1
              MO Center= -1.0D-17, -6.1D-18,  1.5D-01, r^2= 1.4D+00
   Bfn.  Coefficient  Atom+Function         Bfn.  Coefficient  Atom+Function  
  ----- ------------  ---------------      ----- ------------  ---------------
     9      1.109641  1 N  pz                 5     -0.995519  1 N  pz         
     6     -0.322714  1 N  s          
 
 Vector   10  Occ=0.000000D+00  E= 7.367893D-01  Symmetry=e
              MO Center=  9.7D-02,  1.3D-01,  1.2D-01, r^2= 1.7D+00
   Bfn.  Coefficient  Atom+Function         Bfn.  Coefficient  Atom+Function  
  ----- ------------  ---------------      ----- ------------  ---------------
     8      1.168360  1 N  py                 7     -1.003419  1 N  px         
    12      0.733435  3 H  s                 14     -0.671817  4 H  s          
     4     -0.364466  1 N  py                 3      0.313013  1 N  px         
    13      0.194016  3 H  s                 15     -0.177716  4 H  s          
 
 Vector   11  Occ=0.000000D+00  E= 7.367893D-01  Symmetry=e
              MO Center= -9.7D-02, -1.3D-01,  1.2D-01, r^2= 1.7D+00
   Bfn.  Coefficient  Atom+Function         Bfn.  Coefficient  Atom+Function  
  ----- ------------  ---------------      ----- ------------  ---------------
     7      1.168360  1 N  px                 8      1.003419  1 N  py         
    10     -0.811323  2 H  s                 14      0.459024  4 H  s          
     3     -0.364466  1 N  px                12      0.352299  3 H  s          
     4     -0.313013  1 N  py                11     -0.214619  2 H  s          
 
 Vector   12  Occ=0.000000D+00  E= 8.844282D-01  Symmetry=a1
              MO Center=  3.8D-15,  1.2D-15, -3.1D-01, r^2= 1.6D+00
   Bfn.  Coefficient  Atom+Function         Bfn.  Coefficient  Atom+Function  
  ----- ------------  ---------------      ----- ------------  ---------------
    10      0.797602  2 H  s                 12      0.797602  3 H  s          
    14      0.797602  4 H  s                 11     -0.436733  2 H  s          
    13     -0.436733  3 H  s                 15     -0.436733  4 H  s          
     2     -0.355225  1 N  s                  5      0.165885  1 N  pz         
 
 Vector   13  Occ=0.000000D+00  E= 9.434787D-01  Symmetry=e
              MO Center=  3.4D-01,  1.5D-01, -1.7D-01, r^2= 1.7D+00
   Bfn.  Coefficient  Atom+Function         Bfn.  Coefficient  Atom+Function  
  ----- ------------  ---------------      ----- ------------  ---------------
    11      1.418924  2 H  s                  8     -0.959142  1 N  py         
    13     -0.937062  3 H  s                  4      0.782643  1 N  py         
    10     -0.743653  2 H  s                  7     -0.659366  1 N  px         
     3      0.538031  1 N  px                12      0.491111  3 H  s          
    15     -0.481862  4 H  s                 14      0.252542  4 H  s          
 
 Vector   14  Occ=0.000000D+00  E= 9.434787D-01  Symmetry=e
              MO Center= -3.4D-01, -1.5D-01, -1.7D-01, r^2= 1.7D+00
   Bfn.  Coefficient  Atom+Function         Bfn.  Coefficient  Atom+Function  
  ----- ------------  ---------------      ----- ------------  ---------------
    15      1.360229  4 H  s                 13     -1.097419  3 H  s          
     7      0.959142  1 N  px                 3     -0.782643  1 N  px         
    14     -0.712891  4 H  s                  8     -0.659366  1 N  py         
    12      0.575153  3 H  s                  4      0.538031  1 N  py         
    11     -0.262810  2 H  s          
 
 Vector   15  Occ=0.000000D+00  E= 1.215554D+00  Symmetry=a1
              MO Center= -1.2D-15, -2.1D-15, -1.2D-01, r^2= 1.7D+00
   Bfn.  Coefficient  Atom+Function         Bfn.  Coefficient  Atom+Function  
  ----- ------------  ---------------      ----- ------------  ---------------
     6      3.578909  1 N  s                  2     -1.886686  1 N  s          
    11     -0.758103  2 H  s                 13     -0.758103  3 H  s          
    15     -0.758103  4 H  s                  9     -0.448099  1 N  pz         
    10     -0.235775  2 H  s                 12     -0.235775  3 H  s          
    14     -0.235775  4 H  s          
 

 center of mass
 --------------
 x =   0.00000000 y =   0.00000000 z =  -0.02153340

 moments of inertia (a.u.)
 ------------------
           5.787310992904          -0.000000000000           0.000000000000
          -0.000000000000           5.787310992904           0.000000000000
           0.000000000000           0.000000000000          10.320985949873
 
     Multipole analysis of the density
     ---------------------------------
 
     L   x y z        total         alpha         beta         nuclear
     -   - - -        -----         -----         ----         -------
     0   0 0 0     -0.000000     -5.000000     -5.000000     10.000000
 
     1   1 0 0      0.000000     -0.000000     -0.000000      0.000000
     1   0 1 0      0.000000     -0.000000     -0.000000      0.000000
     1   0 0 1     -0.671051      0.079477      0.079477     -0.830004
 
     2   2 0 0     -4.313371     -4.716898     -4.716898      5.120426
     2   1 1 0     -0.000000     -0.000000     -0.000000      0.000000
     2   1 0 1      0.000000      0.000000      0.000000     -0.000000
     2   0 2 0     -4.313371     -4.716898     -4.716898      5.120426
     2   0 1 1      0.000000      0.000000      0.000000     -0.000000
     2   0 0 2     -6.690635     -3.644447     -3.644447      0.598259
 

 Parallel integral file used       1 records with       0 large values

 Line search: 
     step= 1.00 grad=-1.2D-03 hess= 6.1D-04 energy=    -56.531650 mode=accept  
 new step= 1.00                   predicted energy=    -56.531650

          --------
          Step   2
          --------
 
 
                         Geometry "geometry" -> "geometry"
                         ---------------------------------
 
 Output coordinates in angstroms (scale by  1.889725989 to convert to a.u.)
 
  No.       Tag          Charge          X              Y              Z
 ---- ---------------- ---------- -------------- -------------- --------------
    1 N                    7.0000     0.00000000     0.00000000     0.03578418
    2 H                    1.0000     0.69134300     0.69134300    -0.22990285
    3 H                    1.0000     0.25304910    -0.94439210    -0.22990285
    4 H                    1.0000    -0.94439210     0.25304910    -0.22990285
 
      Atomic Mass 
      ----------- 
 
      N                 14.003070
      H                  1.007825
 

 Effective nuclear repulsion energy (a.u.)      11.9058036504

            Nuclear Dipole moment (a.u.) 
            ----------------------------
        X                 Y               Z
 ---------------- ---------------- ----------------
     0.0000000000     0.0000000000    -0.8300041448
 
      Symmetry information
      --------------------
 
 Group name             C3v       
 Group number             17
 Group order               6
 No. of unique centers     2
 
      Symmetry unique atoms
 
     1    2
 
 
                                 NWChem DFT Module
                                 -----------------
 
 
                                 H3N1 dft optimize
 
 

  The DFT is already converged 

         Total DFT energy =    -56.531650137092

 
 
                            NWChem DFT Gradient Module
                            --------------------------
 
 
                                 H3N1 dft optimize
 
 

  charge          =   0.00
  wavefunction    = closed shell

  Rotation of axis 
  Using symmetry


                         DFT ENERGY GRADIENTS

    atom               coordinates                        gradient
                 x          y          z           x          y          z
   1 N       0.000000   0.000000   0.067622   -0.000000   0.000000   0.005245
   2 H       1.306449   1.306449  -0.434453    0.001501   0.001501  -0.001748
   3 H       0.478193  -1.784642  -0.434453    0.000549  -0.002050  -0.001748
   4 H      -1.784642   0.478193  -0.434453   -0.002050   0.000549  -0.001748
 
                 ----------------------------------------
                 |  Time  |  1-e(secs)   |  2-e(secs)   |
                 ----------------------------------------
                 |  CPU   |       0.00   |       0.03   |
                 ----------------------------------------
                 |  WALL  |       0.00   |       0.03   |
                 ----------------------------------------

  Step       Energy      Delta E   Gmax     Grms     Xrms     Xmax   Walltime
  ---- ---------------- -------- -------- -------- -------- -------- --------
@    2     -56.53165014 -6.3D-04  0.00524  0.00205  0.02241  0.03661      2.9
                                                                    

 
                                 NWChem DFT Module
                                 -----------------
 
 
                                 H3N1 dft optimize
 
 
  Caching 1-el integrals 
  Rotation of axis 
 
            General Information
            -------------------
          SCF calculation type: DFT
          Wavefunction type:  closed shell.
          No. of atoms     :     4
          No. of electrons :    10
           Alpha electrons :     5
            Beta electrons :     5
          Charge           :     0
          Spin multiplicity:     1
[...]
 
  2 S  3.06331000E+01  0.111906
  2 S  7.02614000E+00  0.921666
  2 S  2.11205000E+00 -0.002569
 
  3 P  3.06331000E+01  0.038312
  3 P  7.02614000E+00  0.237403
  3 P  2.11205000E+00  0.817592
 
  4 S  6.84009000E-01  1.000000
 
  5 P  6.84009000E-01  1.000000
 
  6 S  2.00878000E-01  1.000000
 
  7 P  2.00878000E-01  1.000000
 


 Summary of "ao basis" -> "" (cartesian)
 ------------------------------------------------------------------------------
       Tag                 Description            Shells   Functions and Types
 ---------------- ------------------------------  ------  ---------------------
 H                           6-311G                  3        3   3s
 N                           6-311G                  7       13   4s3p


 
                                 NWChem DFT Module
                                 -----------------
 
 
                                  H3N1 dft energy
 
 
  Caching 1-el integrals 
  Rotation of axis 
 
            General Information
            -------------------
          SCF calculation type: DFT
          Wavefunction type:  closed shell.
          No. of atoms     :     4
          No. of electrons :    10
           Alpha electrons :     5
            Beta electrons :     5
          Charge           :     0
          Spin multiplicity:     1
          Use of symmetry is: on ; symmetry adaption is: on 
          Maximum number of iterations:  30
          AO basis - number of functions:    22
                     number of shells:    16
          Convergence on energy requested: 1.00D-07
          Convergence on density requested: 1.00D-05
          Convergence on gradient requested: 5.00D-04
 
              XC Information
              --------------
                         B3LYP Method XC Potential
                     Hartree-Fock (Exact) Exchange  0.200          
                        Slater Exchange Functional  0.800 local    
                    Becke 1988 Exchange Functional  0.720 non-local
              Lee-Yang-Parr Correlation Functional  0.810          
                  VWN I RPA Correlation Functional  0.190 local    
 
             Grid Information
             ----------------
          Grid used for XC integration:  fine      
          Radial quadrature: Mura-Knowles        
          Angular quadrature: Lebedev. 
          Tag              B.-S. Rad. Rad. Pts. Rad. Cut. Ang. Pts.
          ---              ---------- --------- --------- ---------
          N                   0.65       70           6.0       590
          H                   0.35       60           8.0       590
          Grid pruning is: on 
          Number of quadrature shells:   130
          Spatial weights used:  Erf1
 
          Convergence Information
          -----------------------
          Convergence aids based upon iterative change in 
          total energy or number of iterations. 
          Levelshifting, if invoked, occurs when the 
          HOMO/LUMO gap drops below (HL_TOL): 1.00D-02
          DIIS, if invoked, will attempt to extrapolate 
          using up to (NFOCK): 10 stored Fock matrices.

                    Damping( 0%)  Levelshifting(0.5)       DIIS
                  --------------- ------------------- ---------------
          dE  on:    start            ASAP                start   
          dE off:    2 iters         30 iters            30 iters 

 
      Screening Tolerance Information
      -------------------------------
          Density screening/tol_rho: 1.00D-11
          AO Gaussian exp screening on grid/accAOfunc:  16
          CD Gaussian exp screening on grid/accCDfunc:  20
          XC Gaussian exp screening on grid/accXCfunc:  20
          Schwarz screening/accCoul: 1.00D-08


 !! nbf/nmo/basis-name mismatch 
           nbf=  22 nbf_file=  15
           nmo=  22nmo_file=  15
           basis="ao basis" basis_file="ao basis"

  Either an incorrect movecs file was 
 specified, or linear dependence has changed,
  or the basis name was changed. 

 Loading old vectors from job with title :

H3N1 dft freq

 
  Load of old vectors failed.   Forcing atomic density guess
 
 
      Superposition of Atomic Density Guess
      -------------------------------------
 
 Sum of atomic energies:         -55.80610752
 
      Non-variational initial energy
      ------------------------------

 Total energy =     -56.212846
 1-e energy   =     -98.254674
 2-e energy   =      30.064788
 HOMO         =      -0.341754
 LUMO         =       0.074409
 
 
      Symmetry analysis of molecular orbitals - initial
      -------------------------------------------------
 
  Numbering of irreducible representations: 
 
     1 a1          2 a2          3 e       
 
  Orbital symmetries:
 
     1 a1          2 a1          3 e           4 e           5 a1      
     6 a1          7 e           8 e           9 e          10 e       
    11 a1         12 a1         13 e          14 e          15 a1      
 
   Time after variat. SCF:     13.9
   Time prior to 1st pass:     13.9

 #quartets = 3.007D+03 #integrals = 1.010D+04 #direct =  0.0% #cached =100.0%


 Integral file          = ./H3N1.aoints.0
 Record size in doubles =    65536    No. of integs per rec  =    43688
 Max. records in memory =        2    Max. records in file   =  1696385
 No. of bits per label  =        8    No. of bits per value  =       64


 Grid_pts file          = ./H3N1.gridpts.0
 Record size in doubles =  12289        No. of grid_pts per rec  =   3070
 Max. records in memory =     29        Max. recs in file   =   9046658


           Memory utilization after 1st SCF pass: 
           Heap Space remaining (MW):       32.28            32279012
          Stack Space remaining (MW):       32.77            32767745

   convergence    iter        energy       DeltaE   RMS-Dens  Diis-err    time
 ---------------- ----- ----------------- --------- --------- ---------  ------
 d= 0,ls=0.0,diis     1    -56.5261581566 -6.85D+01  1.89D-02  2.64D-01    14.2
 d= 0,ls=0.0,diis     2    -56.5317508531 -5.59D-03  9.90D-03  1.97D-01    14.3
 d= 0,ls=0.0,diis     3    -56.5498261268 -1.81D-02  2.31D-03  1.95D-02    14.5
 d= 0,ls=0.0,diis     4    -56.5516795734 -1.85D-03  1.06D-04  7.27D-06    14.7
 d= 0,ls=0.0,diis     5    -56.5516804502 -8.77D-07  5.63D-06  8.92D-09    14.8
 d= 0,ls=0.0,diis     6    -56.5516804516 -1.37D-09  1.10D-06  2.94D-10    15.0


         Total DFT energy =      -56.551680451617
      One electron energy =      -99.813523109478
           Coulomb energy =       39.334710074353
    Exchange-Corr. energy =       -8.049907392970
 Nuclear repulsion energy =       11.977039976478

 Numeric. integr. density =       10.000000143697

     Total iterative time =      1.0s


 
                  Occupations of the irreducible representations
                  ----------------------------------------------
 
                     irrep           alpha         beta
                     --------     --------     --------
                     a1                3.0          3.0
                     a2                0.0          0.0
                     e                 2.0          2.0
 
 
                       DFT Final Molecular Orbital Analysis
                       ------------------------------------
 
 Vector    1  Occ=2.000000D+00  E=-1.426725D+01  Symmetry=a1
              MO Center=  1.3D-21,  1.3D-21, -1.4D-02, r^2= 2.0D-02
   Bfn.  Coefficient  Atom+Function         Bfn.  Coefficient  Atom+Function  
  ----- ------------  ---------------      ----- ------------  ---------------
     1      0.557319  1 N  s                  2      0.466094  1 N  s          
 
 Vector    2  Occ=2.000000D+00  E=-8.378974D-01  Symmetry=a1
              MO Center=  1.3D-18,  5.0D-18, -1.4D-01, r^2= 7.2D-01
   Bfn.  Coefficient  Atom+Function         Bfn.  Coefficient  Atom+Function  
  ----- ------------  ---------------      ----- ------------  ---------------
     6      0.500755  1 N  s                 10      0.376561  1 N  s          
     2     -0.180003  1 N  s          
 
 Vector    3  Occ=2.000000D+00  E=-4.731175D-01  Symmetry=e
              MO Center= -2.0D-01,  4.5D-02, -9.7D-02, r^2= 9.8D-01
   Bfn.  Coefficient  Atom+Function         Bfn.  Coefficient  Atom+Function  
  ----- ------------  ---------------      ----- ------------  ---------------
     7      0.320694  1 N  px                 3      0.209335  1 N  px         
    21     -0.209049  4 H  s                 11      0.207689  1 N  px         
    20     -0.185378  4 H  s          
 
 Vector    4  Occ=2.000000D+00  E=-4.731175D-01  Symmetry=e
              MO Center=  2.0D-01, -4.5D-02, -9.7D-02, r^2= 9.8D-01
   Bfn.  Coefficient  Atom+Function         Bfn.  Coefficient  Atom+Function  
  ----- ------------  ---------------      ----- ------------  ---------------
     8      0.320694  1 N  py                 4      0.209335  1 N  py         
    12      0.207689  1 N  py                15      0.183059  2 H  s          
    18     -0.179025  3 H  s                 14      0.162331  2 H  s          
    17     -0.158754  3 H  s          
 
 Vector    5  Occ=2.000000D+00  E=-2.291317D-01  Symmetry=a1
              MO Center=  4.1D-19,  7.0D-19,  1.0D-01, r^2= 8.5D-01
   Bfn.  Coefficient  Atom+Function         Bfn.  Coefficient  Atom+Function  
  ----- ------------  ---------------      ----- ------------  ---------------
    13      0.533706  1 N  pz                 9      0.383392  1 N  pz         
     5      0.276251  1 N  pz         
 
 Vector    6  Occ=0.000000D+00  E= 4.204714D-02  Symmetry=a1
              MO Center= -1.9D-15,  7.9D-16, -3.0D-01, r^2= 4.0D+00
   Bfn.  Coefficient  Atom+Function         Bfn.  Coefficient  Atom+Function  
  ----- ------------  ---------------      ----- ------------  ---------------
    10      1.330513  1 N  s                 16     -0.660260  2 H  s          
    19     -0.660260  3 H  s                 22     -0.660260  4 H  s          
     6      0.209772  1 N  s          
 
 Vector    7  Occ=0.000000D+00  E= 1.198259D-01  Symmetry=e
              MO Center=  5.6D-02, -6.6D-01, -2.8D-01, r^2= 4.3D+00
   Bfn.  Coefficient  Atom+Function         Bfn.  Coefficient  Atom+Function  
  ----- ------------  ---------------      ----- ------------  ---------------
    19      1.699980  3 H  s                 22     -0.980520  4 H  s          
    16     -0.719459  2 H  s                 12      0.703637  1 N  py         
    11     -0.257031  1 N  px                 8      0.197581  1 N  py         
     4      0.151527  1 N  py         
 
 Vector    8  Occ=0.000000D+00  E= 1.198259D-01  Symmetry=e
              MO Center= -5.6D-02,  6.6D-01, -2.8D-01, r^2= 4.3D+00
   Bfn.  Coefficient  Atom+Function         Bfn.  Coefficient  Atom+Function  
  ----- ------------  ---------------      ----- ------------  ---------------
    16      1.547587  2 H  s                 22     -1.396864  4 H  s          
    11     -0.703637  1 N  px                12     -0.257031  1 N  py         
     7     -0.197581  1 N  px                 3     -0.151527  1 N  px         
    19     -0.150724  3 H  s          
 
 Vector    9  Occ=0.000000D+00  E= 3.607891D-01  Symmetry=e
              MO Center=  1.3D-02,  4.3D-02,  4.0D-03, r^2= 2.4D+00
   Bfn.  Coefficient  Atom+Function         Bfn.  Coefficient  Atom+Function  
  ----- ------------  ---------------      ----- ------------  ---------------
    18      1.553064  3 H  s                 12      1.186090  1 N  py         
    21     -1.158546  4 H  s                 11     -0.708623  1 N  px         
    19     -0.603362  3 H  s                 22      0.450093  4 H  s          
    15     -0.394517  2 H  s                 16      0.153269  2 H  s          
 
 Vector   10  Occ=0.000000D+00  E= 3.607891D-01  Symmetry=e
              MO Center= -1.3D-02, -4.3D-02,  4.0D-03, r^2= 2.4D+00
   Bfn.  Coefficient  Atom+Function         Bfn.  Coefficient  Atom+Function  
  ----- ------------  ---------------      ----- ------------  ---------------
    15      1.565549  2 H  s                 11     -1.186090  1 N  px         
    21     -1.124436  4 H  s                 12     -0.708623  1 N  py         
    16     -0.608212  2 H  s                 18     -0.441112  3 H  s          
    22      0.436841  4 H  s                 19      0.171371  3 H  s          
 
 Vector   11  Occ=0.000000D+00  E= 4.139386D-01  Symmetry=a1
              MO Center= -2.2D-15,  1.3D-15, -3.7D-01, r^2= 2.4D+00
   Bfn.  Coefficient  Atom+Function         Bfn.  Coefficient  Atom+Function  
  ----- ------------  ---------------      ----- ------------  ---------------
    10      1.393798  1 N  s                 15     -1.228858  2 H  s          
    18     -1.228858  3 H  s                 21     -1.228858  4 H  s          
    16      0.413287  2 H  s                 19      0.413287  3 H  s          
    22      0.413287  4 H  s                 13     -0.409848  1 N  pz         
     6      0.210047  1 N  s          
 
 Vector   12  Occ=0.000000D+00  E= 6.117530D-01  Symmetry=a1
              MO Center=  1.6D-17,  7.5D-17,  8.8D-02, r^2= 1.7D+00
   Bfn.  Coefficient  Atom+Function         Bfn.  Coefficient  Atom+Function  
  ----- ------------  ---------------      ----- ------------  ---------------
    13      1.156298  1 N  pz                 9     -0.867873  1 N  pz         
    10     -0.280591  1 N  s                  5     -0.266048  1 N  pz         
 
 Vector   13  Occ=0.000000D+00  E= 7.321508D-01  Symmetry=e
              MO Center=  8.5D-03, -1.0D-01, -5.5D-02, r^2= 2.4D+00
   Bfn.  Coefficient  Atom+Function         Bfn.  Coefficient  Atom+Function  
  ----- ------------  ---------------      ----- ------------  ---------------
    12      1.668557  1 N  py                19      1.299826  3 H  s          
     8     -0.894854  1 N  py                22     -0.750472  4 H  s          
    11     -0.610764  1 N  px                16     -0.549353  2 H  s          
     7      0.327555  1 N  px                 4     -0.256046  1 N  py         
 
 Vector   14  Occ=0.000000D+00  E= 7.321508D-01  Symmetry=e
              MO Center= -8.5D-03,  1.0D-01, -5.5D-02, r^2= 2.4D+00
   Bfn.  Coefficient  Atom+Function         Bfn.  Coefficient  Atom+Function  
  ----- ------------  ---------------      ----- ------------  ---------------
    11      1.668557  1 N  px                16     -1.183740  2 H  s          
    22      1.067624  4 H  s                  7     -0.894854  1 N  px         
    12      0.610764  1 N  py                 8     -0.327555  1 N  py         
     3     -0.256046  1 N  px         
 
 Vector   15  Occ=0.000000D+00  E= 9.757744D-01  Symmetry=a1
              MO Center=  1.0D-15,  2.1D-16, -8.7D-02, r^2= 1.9D+00
   Bfn.  Coefficient  Atom+Function         Bfn.  Coefficient  Atom+Function  
  ----- ------------  ---------------      ----- ------------  ---------------
    10      3.453572  1 N  s                  6     -1.977897  1 N  s          
    16     -0.463222  2 H  s                 19     -0.463222  3 H  s          
    22     -0.463222  4 H  s                 15     -0.424005  2 H  s          
    18     -0.424005  3 H  s                 21     -0.424005  4 H  s          
     2      0.257837  1 N  s                 13     -0.246879  1 N  pz         
 

 center of mass
 --------------
 x =   0.00000000 y =   0.00000000 z =  -0.09340062

 moments of inertia (a.u.)
 ------------------
           5.600706200145           0.000000000000          -0.000000000000
           0.000000000000           5.600706200145          -0.000000000000
          -0.000000000000          -0.000000000000          10.496353101758
 
     Multipole analysis of the density
     ---------------------------------
 
     L   x y z        total         alpha         beta         nuclear
     -   - - -        -----         -----         ----         -------
     0   0 0 0     -0.000000     -5.000000     -5.000000     10.000000
 
     1   1 0 0      0.000000      0.000000      0.000000      0.000000
     1   0 1 0     -0.000000     -0.000000     -0.000000      0.000000
     1   0 0 1     -0.482096      0.456438      0.456438     -1.394973
 
     2   2 0 0     -4.284622     -4.746025     -4.746025      5.207428
     2   1 1 0      0.000000      0.000000      0.000000      0.000000
     2   1 0 1      0.000000      0.000000      0.000000      0.000000
     2   0 2 0     -4.284622     -4.746025     -4.746025      5.207428
     2   0 1 1      0.000000      0.000000      0.000000     -0.000000
     2   0 0 2     -6.898418     -3.695368     -3.695368      0.492317
 

 Parallel integral file used       1 records with       0 large values


 Task  times  cpu:        1.1s     wall:        1.3s
 
 
                                NWChem Input Module
                                -------------------
 
 
 Summary of allocated global arrays
-----------------------------------
  No active global arrays



                         GA Statistics for process    0
                         ------------------------------

       create   destroy   get      put      acc     scatter   gather  read&inc
calls: 2564     2564     1.78e+05 1.74e+04 1.42e+05  314        0     6223     
number of processes/call 1.00e+00 1.00e+00 1.00e+00 1.00e+00 0.00e+00
bytes total:             3.20e+07 4.89e+06 2.41e+07 4.98e+05 0.00e+00 4.98e+04
bytes remote:            0.00e+00 0.00e+00 0.00e+00 0.00e+00 0.00e+00 0.00e+00
Max memory consumed for GA by this process: 243000 bytes
 
MA_summarize_allocated_blocks: starting scan ...
MA_summarize_allocated_blocks: scan completed: 0 heap blocks, 0 stack blocks
MA usage statistics:

	allocation statistics:
					      heap	     stack
					      ----	     -----
	current number of blocks	         0	         0
	maximum number of blocks	        26	        52
	current total bytes		         0	         0
	maximum total bytes		   6368256	  64298392
	maximum total K-bytes		      6369	     64299
	maximum total M-bytes		         7	        65
 
 
                                     CITATION
                                     --------
                Please cite the following reference when publishing
                           results obtained with NWChem:
 
                 M. Valiev, E.J. Bylaska, N. Govind, K. Kowalski,
              T.P. Straatsma, H.J.J. van Dam, D. Wang, J. Nieplocha,
                        E. Apra, T.L. Windus, W.A. de Jong
                 "NWChem: a comprehensive and scalable open-source
                  solution for large scale molecular simulations"
                      Comput. Phys. Commun. 181, 1477 (2010)
                           doi:10.1016/j.cpc.2010.04.018
 
                              AUTHORS & CONTRIBUTORS
                              ----------------------
          E. Apra, E. J. Bylaska, W. A. de Jong, N. Govind, K. Kowalski,
       T. P. Straatsma, M. Valiev, H. J. J. van Dam, D. Wang, T. L. Windus,
        J. Hammond, J. Autschbach, K. Bhaskaran-Nair, J. Brabec, K. Lopata,
     F. Aquino, S. Hirata, M. T. Hackler, J. Mullin, P. Nichols, R. Peverati,
    J. Pittner, Y. Zhao, P.-D. Fan, R. J. Harrison, M. Dupuis, D. Silverstein,
    D. M. A. Smith, J. Nieplocha, V. Tipparaju, M. Krishnan, B. E. Van Kuiken,
        A. Vazquez-Mayagoitia, L. Jensen, M. Swart, Q. Wu, T. Van Voorhis,
     A. A. Auer, M. Nooijen, L. D. Crosby, E. Brown, G. Cisneros, G. I. Fann,
     H. Fruchtl, J. Garza, K. Hirao, R. Kendall, J. A. Nichols, K. Tsemekhman,
      K. Wolinski, J. Anchell, D. Bernholdt, P. Borowski, T. Clark, D. Clerc,
      H. Dachsel, M. Deegan, K. Dyall, D. Elwood, E. Glendening, M. Gutowski,
      A. Hess, J. Jaffe, B. Johnson, J. Ju, R. Kobayashi, R. Kutteh, Z. Lin,
   R. Littlefield, X. Long, B. Meng, T. Nakajima, S. Niu, L. Pollack, M. Rosing,
   K. Glaesemann, G. Sandrone, M. Stave, H. Taylor, G. Thomas, J. H. van Lenthe,
                                A. Wong, Z. Zhang.

 Total times  cpu:       14.8s     wall:       18.0s
